<?xml version="1.0" encoding="UTF-8"?>

<!-- generated on 2024-05-09 14:09:54 by Eclipse SUMO GUI Version 1.19.0
<configuration xmlns:xsi="http://www.w3.org/2001/XMLSchema-instance" xsi:noNamespaceSchemaLocation="http://sumo.dlr.de/xsd/sumoConfiguration.xsd">

    <input>
        <net-file value="dqn.net.xml"/>
        <route-files value="dqn.rou.xml"/>
    </input>

    <output>
        <tripinfo-output value="tripinfo.xml"/>
    </output>

    <processing>
        <collision.action value="warn"/>
        <collision.stoptime value="1"/>
        <collision.mingap-factor value="1"/>
    </processing>

    <gui_only>
        <quit-on-end value="true"/>
        <start value="true"/>
    </gui_only>

</configuration>
-->

<tripinfos xmlns:xsi="http://www.w3.org/2001/XMLSchema-instance" xsi:noNamespaceSchemaLocation="http://sumo.dlr.de/xsd/tripinfo_file.xsd">
    <tripinfo id="vehicle1" depart="0.00" departLane="-gneE3_1" departPos="5.10" departSpeed="0.00" departDelay="0.00" arrival="22.00" arrivalLane="gneE2_0" arrivalPos="91.95" arrivalSpeed="12.25" duration="22.00" routeLength="183.80" waitingTime="0.00" waitingCount="0" stopTime="0.00" timeLoss="7.29" rerouteNo="0" devices="tripinfo_vehicle1" vType="car" speedFactor="0.94" vaporized=""/>
    <tripinfo id="vehicle3" depart="0.00" departLane="-gneE0_0" departPos="5.10" departSpeed="0.00" departDelay="0.00" arrival="23.00" arrivalLane="gneE3_0" arrivalPos="91.95" arrivalSpeed="10.67" duration="23.00" routeLength="183.80" waitingTime="0.00" waitingCount="0" stopTime="0.00" timeLoss="6.56" rerouteNo="0" devices="tripinfo_vehicle3" vType="car" speedFactor="0.83" vaporized=""/>
</tripinfos>
